 +-------------------------------------------------+
 |                                                 |
 |      CCC   AA    SSS  TTTTT  EEEEE  PPPP        |
 |     C     A  A  S       T    E      P   P       |
 |     C     AAAA   SS     T    EEE    PPPP        |
 |     C     A  A     S    T    E      P           |
 |      CCC  A  A  SSS     T    EEEEE  P           |
 |                                                 |
 +-------------------------------------------------+
 |                                                 |
 | Welcome to Academic Release CASTEP version 6.1  |
 | Ab Initio Total Energy Program                  |
 |                                                 |
 | Authors:                                        |
 | M. Segall, M. Probert, C. Pickard, P. Hasnip,   |
 | S. Clark, K. Refson, J. R. Yates, M. Payne      |
 |                                                 |
 | Contributors:                                   |
 | P. Lindan, P. Haynes, J. White, V. Milman,      |
 | N. Govind, M. Gibson, P. Tulip, V. Cocula,      |
 | B. Montanari, D. Quigley, M. Glover,            |
 | L. Bernasconi, A. Perlov, M. Plummer,           |
 | E. McNellis, J. Meyer, J. Gale, D. Jochym       |
 | J. Aarons, B. Walker, R. Gillen                 |
 |                                                 |
 | Copyright (c) 2000 - 2012                       |
 |                                                 |
 |     Distributed under the terms of an           |
 |     Agreement between the United Kingdom        |
 |     Car-Parrinello (UKCP) Consortium,           |
 |     Daresbury Laboratory and Accelrys, Inc.     |
 |                                                 |
 | Please cite                                     |
 |                                                 |
 |     "First principles methods using CASTEP"     |
 |                                                 |
 |         Zeitschrift fuer Kristallographie       |
 |           220(5-6) pp. 567-570 (2005)           |
 |                                                 |
 | S. J. Clark, M. D. Segall, C. J. Pickard,       |
 | P. J. Hasnip, M. J. Probert, K. Refson,         |
 | M. C. Payne                                     |
 |                                                 |
 |       in all publications arising from          |
 |              your use of CASTEP                 |
 |                                                 |
 +-------------------------------------------------+
 
 
 Compiled for linux_x86_64_ifort12--platform-m on Wed Oct 31 12:23:41 2012
 from source code version aea754e9a0be+  2012-10-31
 using fast optimisation, default FFTs and default LAPACK and BLAS.
 
 +-------------------------------------------------+
 |                                                 |
 |  D D D D    F F F F F  P P P P     T T T T T    |
 |  D       D  F          P       P       T        |
 |  D       D  F F F F    P P P P         T        |
 |  D       D  F          P               T        |
 |  D D D D    F          P               T        |
 |                                                 |
 +-------------------------------------------------+
 |                                                 |
 | Welcome to Castep Linear Response (DFPT)        |
 |                                                 |
 | Copyright (c) 2006 - 2012                       |
 |                                                 |
 | Please cite the following publications in all   |
 | work arising from your use of CASTEP LR.        |
 |                                                 |
 | K. Refson, S. J. Clark and P. R. Tulip          |
 | Variational density functional perturbation     |
 | theory for dielectrics and lattice dynamics     |
 | Phys. Rev. B 73(15), 155114 (2006)              |
 +-------------------------------------------------+
 
Reading continuation data from model file squaricn.check
 
 Pseudo atomic calculation performed for H 1s1
 
 Converged in 19 iterations to a total energy of -12.4757 eV
 
 
 Pseudo atomic calculation performed for C 2s2 2p2
 
 Converged in 26 iterations to a total energy of -145.6078 eV
 
 
 Pseudo atomic calculation performed for O 2s2 2p4
 
 Converged in 33 iterations to a total energy of -423.8770 eV
 
Initialising basis set for model.
Reinitialising basis set for current geometry.
Continuing from previous run with ground state wavefunction.
Continuing from previous run with ground state density.
 Info: PHONON_FINE_METHOD modified from INTERPOLATE to interpolation
 Info: CALCULATE_RAMAN modified from F to T
 Calculation parallelised over 132 processes.
 Data is distributed by G-vector(33-way) and k-point(4-way)

 ************************************ Title ************************************
 

 ***************************** General Parameters ******************************
  
 output verbosity                               : normal  (1)
 continuing from                                : squaricn.check
 write checkpoint data to                       : squaricn.check
 type of calculation                            : Phonon followed by E-field
 stress calculation                             : on
 density difference calculation                 : off
 electron localisation func (ELF) calculation   : off
 Hirshfeld analysis                             : off
 unlimited duration calculation
 timing information                             : on
 memory usage estimate                          : on
 write final potential to formatted file        : off
 write final density to formatted file          : off
 write BibTeX reference list                    : on
  
 output         length unit                     : A
 output           mass unit                     : amu
 output           time unit                     : ps
 output         charge unit                     : e
 output         energy unit                     : eV
 output          force unit                     : eV/A
 output       velocity unit                     : A/ps
 output       pressure unit                     : GPa
 output     inv_length unit                     : 1/A
 output      frequency unit                     : cm-1
 output force constant unit                     : eV/A**2
 output         volume unit                     : A**3
 output   IR intensity unit                     : (D/A)**2/amu
 output         dipole unit                     : D
 output         efield unit                     : eV/A/e
 output        entropy unit                     : J/mol/K
  
 wavefunctions paging                           : none
 random number generator seed                   :   54829500
 data distribution                              : optimal for this architecture
 optimization strategy                          : maximize speed(+++)

 *********************** Exchange-Correlation Parameters ***********************
  
 using functional                               : Perdew Burke Ernzerhof
 Divergence correction                          : off
 DFT+D: Semi-empirical dispersion correction    : off

 ************************* Pseudopotential Parameters **************************
  
 pseudopotential representation                 : reciprocal space
 <beta|phi> representation                      : reciprocal space

 **************************** Basis Set Parameters *****************************
  
 plane wave basis set cut-off                   :   800.0000   eV
 size of standard grid                          :     2.0000
 size of   fine   grid                          :     3.0000
 size of   fine   gmax                          :    43.4715   1/A
 largest prime factor in FFT                    :          5
 finite basis set correction                    : none

 **************************** Electronic Parameters ****************************
  
 number of  electrons                           :  84.00    
 net charge of system                           :  0.000    
 net spin   of system                           :  0.000    
 number of  up  spins                           :  42.00    
 number of down spins                           :  42.00    
 treating system as non-spin-polarized
 number of bands                                :         42

 ********************* Electronic Minimization Parameters **********************
  
 Method: Treating system as non-metallic,
         and number of  SD  steps               :          1
         and number of  CG  steps               :          4
  
 total energy / atom convergence tol.           : 0.2500E-08   eV
 eigen-energy convergence tolerance             : 0.1190E-08   eV
 max force / atom convergence tol.              : ignored
 convergence tolerance window                   :          3   cycles
 max. number of SCF cycles                      :        100
 periodic dipole correction                     : NONE

 ************************** Density Mixing Parameters **************************
  
 density-mixing scheme                          : Broyden
 max. length of mixing history                  :          7
 charge density mixing amplitude                : 0.8000    
 cut-off energy for mixing                      :  800.0       eV
 charge density mixing g-vector                 :  1.500       1/A

 *********************** Population Analysis Parameters ************************
  
 Population analysis with cutoff                :  3.000       A

 ****************************** Phonon Parameters ******************************
  
 phonon calculation method                      : linear response
 phonon convergence tolerance                   : 0.1000E-04   eV/A**2
 max. number of phonon cycles                   :         50
 max. number of phonon CG steps                 :          0
 convergence tolerance window                   :          2   cycles
 DFPT solver method                             : AllBands (Gonze variational method)
 preconditioning scheme                         : TPA     
 fine phonon calculation method                 : interpolation
 non-periodic force constant method             : Weighted cumulant sum
 force constant cutoff scale factor             :     1.0000
 LO/TO splitting term                           : included
 acoustic phonon sum rule                       : correct D(q) in recip-space
 Born effective charges                         : calculated
 Born charge sum rule                           : explicitly enforced
 Raman intensities                              : calculated
 Raman frequency window start                   :  0.000       eV
 Raman frequency window stop                    :  1.000       eV
 phonon k-points                                : use reduced set
 phonon DOS                                     : not calculated
 backups results every                          :       3600   seconds

 ***************************** E-Field Parameters ******************************
  
 E-field convergence tolerance                  : 0.1000E-04   A**3
 DFPT solver method                             : AllBands (Gonze variational method)
 ionic contribution to permittivity             : included
 treating system as a crystal, 
 => ignoring 3 lowest modes when calculating ionic  contribution to permittivity
 calculation with frequency spacing             : 0.4556E-05   cm-1
 Q-factor for lineshape broadening              :    50.0000
 max. number of E-field cycles                  :         50
 max. number of E-field CG steps                :          0
 convergence tolerance window                   :          2   cycles
 band convergence tolerance                     : 0.1000E-05   eV

 *******************************************************************************
  
 
                           -------------------------------
                                      Unit Cell
                           -------------------------------
        Real Lattice(A)                      Reciprocal Lattice(1/A)
   6.1159907   0.0000000  -0.0106744        1.0273373   0.0000000   0.0000000
   0.0000000   5.1490000   0.0000000        0.0000000   1.2202729   0.0000000
   0.0000000   0.0000000   6.1300000        0.0017889   0.0000000   1.0249894
 
                       Lattice parameters(A)       Cell Angles
                    a =    6.116000          alpha =   90.000000
                    b =    5.149000          beta  =   90.100000
                    c =    6.130000          gamma =   90.000000
 
                       Current cell volume =  193.041277       A**3
 
                           -------------------------------
                                     Cell Contents
                           -------------------------------
                         Total number of ions in cell =   20
                      Total number of species in cell =    3
                        Max number of any one species =    8
 
            xxxxxxxxxxxxxxxxxxxxxxxxxxxxxxxxxxxxxxxxxxxxxxxxxxxxxxxxxxxx
            x  Element    Atom        Fractional coordinates of atoms  x
            x            Number           u          v          w      x
            x----------------------------------------------------------x
            x  H            1         0.268678   0.250000   0.716882   x
            x  H            2        -0.224470   0.250000   0.264238   x
            x  H            3        -0.268678   0.750000  -0.716882   x
            x  H            4         0.224470   0.750000  -0.264238   x
            x  C            1         0.189355   0.250000   0.080497   x
            x  C            2         0.094593   0.250000   0.300574   x
            x  C            3         0.307619   0.250000   0.397503   x
            x  C            4         0.411767   0.250000   0.182671   x
            x  C            5        -0.189355   0.750000  -0.080497   x
            x  C            6        -0.094593   0.750000  -0.300574   x
            x  C            7        -0.307619   0.750000  -0.397503   x
            x  C            8        -0.411767   0.750000  -0.182671   x
            x  O            1         0.113941   0.250000  -0.107172   x
            x  O            2        -0.097627   0.250000   0.383828   x
            x  O            3         0.387987   0.250000   0.591132   x
            x  O            4         0.601154   0.250000   0.110961   x
            x  O            5        -0.113941   0.750000   0.107172   x
            x  O            6         0.097627   0.750000  -0.383828   x
            x  O            7        -0.387987   0.750000  -0.591132   x
            x  O            8        -0.601154   0.750000  -0.110961   x
            xxxxxxxxxxxxxxxxxxxxxxxxxxxxxxxxxxxxxxxxxxxxxxxxxxxxxxxxxxxx
 
 
                         No user defined ionic velocities
 
                           -------------------------------
                                   Details of Species
                           -------------------------------
 
                               Mass of species in AMU
                                    H    1.0079400
                                    C   12.0107000
                                    O   15.9994000
 
                          Electric Quadrupole Moment (Barn)
                                    H    0.0028600 Isotope  2
                                    C    0.0332700 Isotope 11
                                    O   -0.0255800 Isotope 17
 
                          Files used for pseudopotentials:
                                    H /apps/contrib/castep/pseudopotentials/h-optgga1.recpot
                                    C /apps/contrib/castep/pseudopotentials/c-optgga2.recpot
                                    O /apps/contrib/castep/pseudopotentials/o-optgga1.recpot
 
                           -------------------------------
                              k-Points For BZ Sampling
                           -------------------------------
                       MP grid size for SCF calculation is  4  4  4
                         Number of kpoints used =          16
 
             +++++++++++++++++++++++++++++++++++++++++++++++++++++++
             +  Number       Fractional coordinates        Weight  +
             +-----------------------------------------------------+
             +     1  -0.375000  -0.375000  -0.375000   0.0625000  +
             +     2  -0.375000  -0.375000  -0.125000   0.0625000  +
             +     3  -0.375000  -0.125000   0.375000   0.0625000  +
             +     4  -0.375000   0.125000  -0.375000   0.0625000  +
             +     5  -0.375000   0.125000   0.125000   0.0625000  +
             +     6  -0.125000  -0.375000  -0.375000   0.0625000  +
             +     7  -0.125000   0.375000   0.375000   0.0625000  +
             +     8   0.125000  -0.375000  -0.125000   0.0625000  +
             +     9   0.125000  -0.375000   0.125000   0.0625000  +
             +    10   0.125000  -0.125000  -0.375000   0.0625000  +
             +    11   0.125000  -0.125000  -0.125000   0.0625000  +
             +    12   0.125000  -0.125000   0.125000   0.0625000  +
             +    13   0.125000  -0.125000   0.375000   0.0625000  +
             +    14   0.375000   0.125000   0.125000   0.0625000  +
             +    15   0.375000   0.375000  -0.375000   0.0625000  +
             +    16   0.375000   0.375000  -0.125000   0.0625000  +
             +++++++++++++++++++++++++++++++++++++++++++++++++++++++
 
                           -------------------------------
                               Symmetry and Constraints
                           -------------------------------
 
                      Number of symmetry operations   =           4
         There are no ionic constraints specified or generated for this cell
                      Maximum deviation from symmetry =  0.00000         ANG
               Point group of crystal =     5: C2h, 2/m, 2/m
           Set iprint > 1 for details on symmetry rotations/translations
 
                        Centre of mass is NOT constrained
 
                         Number of cell constraints= 6
                         Cell constraints are:  0 0 0 0 0 0
 
                         External pressure/stress (GPa)
                          0.00000   0.00000   0.00000
                                    0.00000   0.00000
                                              0.00000
 Restarting Phonon calculation: Frequencies for q-points 1 to       1 recovered from .check file.
 
 ==============================================================================
 +                           Vibrational Frequencies                          +
 +                           -----------------------                          +
 +                                                                            +
 + Performing frequency calculation at  1 wavevector  (q-pt )                 +
 + ========================================================================== +
 +                                                                            +
 +============================================================================+
 +                       Raman Intensity Progress Report                      +
 +----------------------------------------------------------------------------+
 + RAMAN: Not a continuation; generating Raman intensities from beginning     +
 +----------------------------------------------------------------------------+
 + Mode     1: not Raman active; calculation not required                     +
 + Mode     2: not Raman active; calculation not required                     +
 + Mode     3: not Raman active; calculation not required                     +
 + Mode     4: performing Raman intensity calculation                         +
 + Mode number:   4 completed;                   time taken:   316.60 seconds +
 + Mode     5: performing Raman intensity calculation                         +
 + Mode number:   5 completed;                   time taken:   316.51 seconds +
 + Mode     6: not Raman active; calculation not required                     +
 + Mode     7: not Raman active; calculation not required                     +
 + Mode     8: performing Raman intensity calculation                         +
 + Mode number:   8 completed;                   time taken:   569.24 seconds +
 + Mode     9: performing Raman intensity calculation                         +
 + Mode number:   9 completed;                   time taken:   564.65 seconds +
 + Mode    10: performing Raman intensity calculation                         +
 + Mode number:  10 completed;                   time taken:   571.43 seconds +
 + Mode    11: performing Raman intensity calculation                         +
 + Mode number:  11 completed;                   time taken:   565.38 seconds +
 + Mode    12: not Raman active; calculation not required                     +
 + Mode    13: not Raman active; calculation not required                     +
 + Mode    14: performing Raman intensity calculation                         +
 + Mode number:  14 completed;                   time taken:   566.69 seconds +
 + Mode    15: not Raman active; calculation not required                     +
 + Mode    16: performing Raman intensity calculation                         +
 + Mode number:  16 completed;                   time taken:   311.08 seconds +
 + Checkpointing.....                                                         +
 
Writing model to squaricn.check
 + Mode    17: performing Raman intensity calculation                         +
 + Mode number:  17 completed;                   time taken:   308.15 seconds +
 + Mode    18: not Raman active; calculation not required                     +
 + Mode    19: not Raman active; calculation not required                     +
 + Mode    20: performing Raman intensity calculation                         +
 + Mode number:  20 completed;                   time taken:   307.45 seconds +
 + Mode    21: not Raman active; calculation not required                     +
 + Mode    22: performing Raman intensity calculation                         +
 + Mode number:  22 completed;                   time taken:   309.03 seconds +
 + Mode    23: not Raman active; calculation not required                     +
 + Mode    24: not Raman active; calculation not required                     +
 + Mode    25: performing Raman intensity calculation                         +
 + Mode number:  25 completed;                   time taken:   569.62 seconds +
 + Mode    26: performing Raman intensity calculation                         +
 + Mode number:  26 completed;                   time taken:   569.72 seconds +
 + Mode    27: not Raman active; calculation not required                     +
 + Mode    28: performing Raman intensity calculation                         +
 + Mode number:  28 completed;                   time taken:   310.22 seconds +
 + Mode    29: not Raman active; calculation not required                     +
 + Mode    30: performing Raman intensity calculation                         +
 + Mode number:  30 completed;                   time taken:   309.20 seconds +
 + Mode    31: not Raman active; calculation not required                     +
 + Mode    32: performing Raman intensity calculation                         +
 + Mode number:  32 completed;                   time taken:   566.15 seconds +
 + Mode    33: not Raman active; calculation not required                     +
 + Mode    34: performing Raman intensity calculation                         +
 + Mode number:  34 completed;                   time taken:   315.00 seconds +
 + Mode    35: performing Raman intensity calculation                         +
 + Mode number:  35 completed;                   time taken:   318.68 seconds +
 + Checkpointing.....                                                         +
 
Writing model to squaricn.check
 + Mode    36: not Raman active; calculation not required                     +
 + Mode    37: performing Raman intensity calculation                         +
 + Mode number:  37 completed;                   time taken:   318.27 seconds +
 + Mode    38: not Raman active; calculation not required                     +
 + Mode    39: not Raman active; calculation not required                     +
 + Mode    40: performing Raman intensity calculation                         +
 + Mode number:  40 completed;                   time taken:   587.03 seconds +
 + Mode    41: performing Raman intensity calculation                         +
 + Mode number:  41 completed;                   time taken:   318.08 seconds +
 + Mode    42: not Raman active; calculation not required                     +
 + Mode    43: performing Raman intensity calculation                         +
 + Mode number:  43 completed;                   time taken:   579.75 seconds +
 + Mode    44: not Raman active; calculation not required                     +
 + Mode    45: not Raman active; calculation not required                     +
 + Mode    46: performing Raman intensity calculation                         +
 + Mode number:  46 completed;                   time taken:   318.71 seconds +
 + Mode    47: not Raman active; calculation not required                     +
 + Mode    48: performing Raman intensity calculation                         +
 + Mode number:  48 completed;                   time taken:   317.58 seconds +
 + Mode    49: not Raman active; calculation not required                     +
 + Mode    50: performing Raman intensity calculation                         +
 + Mode number:  50 completed;                   time taken:   316.10 seconds +
 + Mode    51: not Raman active; calculation not required                     +
 + Mode    52: performing Raman intensity calculation                         +
 + Mode number:  52 completed;                   time taken:   317.72 seconds +
 + Mode    53: performing Raman intensity calculation                         +
 + Mode number:  53 completed;                   time taken:   318.98 seconds +
 + Mode    54: not Raman active; calculation not required                     +
 + Mode    55: performing Raman intensity calculation                         +
 + Mode number:  55 completed;                   time taken:   317.26 seconds +
 + Checkpointing.....                                                         +
 
Writing model to squaricn.check
 + Mode    56: not Raman active; calculation not required                     +
 + Mode    57: not Raman active; calculation not required                     +
 + Mode    58: performing Raman intensity calculation                         +
 + Mode number:  58 completed;                   time taken:   318.40 seconds +
 + Mode    59: not Raman active; calculation not required                     +
 + Mode    60: performing Raman intensity calculation                         +
 + Mode number:  60 completed;                   time taken:   317.20 seconds +
 +----------------------------------------------------------------------------+
 +   E N D    O F    R A M A N    I N T E N S I T Y    C A L C U L A T I O N  +
 +         Raman intensity calculation completed in   12016.04 seconds        +
 +============================================================================+
 + -------------------------------------------------------------------------- +
 +  q-pt=    1 (  0.000000  0.000000  0.000000)     1.0000000000              +
 + -------------------------------------------------------------------------- +
 +  Acoustic sum rule correction <  33.300264 cm-1 applied                    +
 +     N      Frequency irrep.    ir intensity active  raman intensity active + 
 +                (cm-1)         ((D/A)**2/amu)                  (A**4)       + 
 +                                                                            +
 +     1      -0.051481   a          0.0000000  N            0.0000000  N     + 
 +     2      -0.041805   b          0.0000000  N            0.0000000  N     + 
 +     3      -0.029502   a          0.0000000  N            0.0000000  N     + 
 +     4      79.940273   c          0.0000000  N            0.3234903  Y     + 
 +     5      92.224993   c          0.0000000  N            0.5855679  Y     + 
 +     6     144.416293   b          0.0522532  Y            0.0000000  N     + 
 +     7     145.924549   b          0.0138368  Y            0.0000000  N     + 
 +     8     147.207747   d          0.0000000  N            0.8824386  Y     + 
 +     9     158.415980   d          0.0000000  N            5.5830014  Y     + 
 +    10     171.283284   d          0.0000000  N           39.6306071  Y     + 
 +    11     175.183597   d          0.0000000  N           34.5092642  Y     + 
 +    12     185.739128   b          0.0001192  Y            0.0000000  N     + 
 +    13     253.655078   b          1.8741923  Y            0.0000000  N     + 
 +    14     268.684926   d          0.0000000  N            0.1213805  Y     + 
 +    15     271.190147   a         27.0369490  Y            0.0000000  N     + 
 +    16     278.291881   c          0.0000000  N           19.4733705  Y     + 
 +    17     307.781519   c          0.0000000  N           12.9688058  Y     + 
 +    18     309.983933   a          3.7032418  Y            0.0000000  N     + 
 +    19     323.903251   a          2.4663812  Y            0.0000000  N     + 
 +    20     326.372575   c          0.0000000  N            0.8265039  Y     + 
 +    21     415.143018   a         29.6248470  Y            0.0000000  N     + 
 +    22     418.713562   c          0.0000000  N          161.5063963  Y     + 
 +    23     609.121114   b          0.0203291  Y            0.0000000  N     + 
 +    24     610.311458   b          0.0110255  Y            0.0000000  N     + 
 +    25     613.283456   d          0.0000000  N           31.0680454  Y     + 
 +    26     614.533930   d          0.0000000  N           27.3492219  Y     + 
 +    27     621.281116   a         13.6178905  Y            0.0000000  N     + 
 +    28     624.860460   c          0.0000000  N          185.9072537  Y     + 
 +    29     725.511704   a          8.2961742  Y            0.0000000  N     + 
 +    30     729.411176   c          0.0000000  N          687.3803243  Y     + 
 +    31     768.901416   b          0.0001335  Y            0.0000000  N     + 
 +    32     774.092089   d          0.0000000  N            1.2635998  Y     + 
 +    33     851.974980   a          4.1715005  Y            0.0000000  N     + 
 +    34     853.145281   c          0.0000000  N            4.9831085  Y     + 
 +    35    1039.239327   c          0.0000000  N          109.2692704  Y     + 
 +    36    1039.595498   a          1.5554912  Y            0.0000000  N     + 
 +    37    1051.472521   c          0.0000000  N           18.7599813  Y     + 
 +    38    1052.136156   a          0.3514577  Y            0.0000000  N     + 
 +    39    1060.175976   b         16.2218175  Y            0.0000000  N     + 
 +    40    1073.991428   d          0.0000000  N            0.3525363  Y     + 
 +    41    1147.314035   c          0.0000000  N          647.0817875  Y     + 
 +    42    1148.976016   a          4.2179389  Y            0.0000000  N     + 
 +    43    1180.102819   d          0.0000000  N            0.2443914  Y     + 
 +    44    1194.465983   b          0.0201294  Y            0.0000000  N     + 
 +    45    1322.235336   a        305.5709984  Y            0.0000000  N     + 
 +    46    1332.881703   c          0.0000000  N          515.7324459  Y     + 
 +    47    1336.547725   a        287.8796785  Y            0.0000000  N     + 
 +    48    1349.724931   c          0.0000000  N         1024.1694753  Y     + 
 +    49    1542.155165   a         25.3825026  Y            0.0000000  N     + 
 +    50    1549.043150   c          0.0000000  N           14.5489613  Y     + 
 +    51    1558.519100   a         41.7777938  Y            0.0000000  N     + 
 +    52    1562.252437   c          0.0000000  N          186.5442692  Y     + 
 +    53    1587.427893   c          0.0000000  N          547.4970929  Y     + 
 +    54    1611.177716   a         26.2314583  Y            0.0000000  N     + 
 +    55    1797.455407   c          0.0000000  N          108.5452086  Y     + 
 +    56    1802.953294   a         10.2139650  Y            0.0000000  N     + 
 +    57    2048.219853   a        210.6668488  Y            0.0000000  N     + 
 +    58    2077.104068   c          0.0000000  N          998.8214983  Y     + 
 +    59    2096.028163   a        222.0679766  Y            0.0000000  N     + 
 +    60    2121.406092   c          0.0000000  N         1413.7464823  Y     + 
 + .......................................................................... +
 +        Character table from group theory analysis of eigenvectors          +
 +                           Point Group =   5, C2h                           +
 + .......................................................................... +
 +  Rep  Mul |    E   2   I   m                                               +
 +           | ----------------                                               +
 + a Bu   20 |    1  -1  -1   1                                               +
 + b Au   10 |    1   1  -1  -1                                               +
 + c Ag   20 |    1   1   1   1                                               +
 + d Bg   10 |    1  -1   1  -1                                               +
 + -------------------------------------------------------------------------- +
 +  q-pt=    1 (  0.000000  0.000000  0.000000)     1.0000000000              +
 +  q->0 along (  0.000000  0.000000  1.000000)                               +
 + -------------------------------------------------------------------------- +
 +  Acoustic sum rule correction <  33.300264 cm-1 applied                    +
 +     N      Frequency irrep.    ir intensity active            raman active + 
 +                (cm-1)         ((D/A)**2/amu)                               + 
 +                                                                            +
 +     1      -0.051432   a          0.0000000  N                       N     + 
 +     2      -0.041805   b          0.0000000  N                       N     + 
 +     3       1.765845   a          0.0000000  N                       N     + 
 +     4      79.940273   c          0.0000000  N                       Y     + 
 +     5      92.224993   c          0.0000000  N                       Y     + 
 +     6     144.416293   b          0.0522532  Y                       N     + 
 +     7     145.924549   b          0.0138368  Y                       N     + 
 +     8     147.207747   d          0.0000000  N                       Y     + 
 +     9     158.415980   d          0.0000000  N                       Y     + 
 +    10     171.283284   d          0.0000000  N                       Y     + 
 +    11     175.183597   d          0.0000000  N                       Y     + 
 +    12     185.739128   b          0.0001192  Y                       N     + 
 +    13     253.655078   b          1.8741923  Y                       N     + 
 +    14     268.684926   d          0.0000000  N                       Y     + 
 +    15     278.291881   c          0.0000000  N                       Y     + 
 +    16     295.173620   a         23.0983593  Y                       N     + 
 +    17     307.781519   c          0.0000000  N                       Y     + 
 +    18     313.754293   a          0.6548619  Y                       N     + 
 +    19     324.202936   a          3.5787273  Y                       N     + 
 +    20     326.372575   c          0.0000000  N                       Y     + 
 +    21     418.713562   c          0.0000000  N                       Y     + 
 +    22     451.726210   a         12.7679237  Y                       N     + 
 +    23     609.121114   b          0.0203291  Y                       N     + 
 +    24     610.311458   b          0.0110255  Y                       N     + 
 +    25     613.283456   d          0.0000000  N                       Y     + 
 +    26     614.533930   d          0.0000000  N                       Y     + 
 +    27     624.860460   c          0.0000000  N                       Y     + 
 +    28     632.715579   a         10.4968361  Y                       N     + 
 +    29     728.405408   a          6.0533479  Y                       N     + 
 +    30     729.411176   c          0.0000000  N                       Y     + 
 +    31     768.901416   b          0.0001335  Y                       N     + 
 +    32     774.092089   d          0.0000000  N                       Y     + 
 +    33     852.764129   a          3.5452437  Y                       N     + 
 +    34     853.145281   c          0.0000000  N                       Y     + 
 +    35    1039.239327   c          0.0000000  N                       Y     + 
 +    36    1040.422027   a          0.4307082  Y                       N     + 
 +    37    1051.472521   c          0.0000000  N                       Y     + 
 +    38    1052.136165   a          0.3515722  Y                       N     + 
 +    39    1060.175976   b         16.2218175  Y                       N     + 
 +    40    1073.991428   d          0.0000000  N                       Y     + 
 +    41    1147.314035   c          0.0000000  N                       Y     + 
 +    42    1148.981063   a          4.2030988  Y                       N     + 
 +    43    1180.102819   d          0.0000000  N                       Y     + 
 +    44    1194.465983   b          0.0201294  Y                       N     + 
 +    45    1323.460782   a        311.6073878  Y                       N     + 
 +    46    1332.881703   c          0.0000000  N                       Y     + 
 +    47    1349.724931   c          0.0000000  N                       Y     + 
 +    48    1488.278366   a         46.8704494  Y                       N     + 
 +    49    1542.864915   a         24.9931513  Y                       N     + 
 +    50    1549.043150   c          0.0000000  N                       Y     + 
 +    51    1562.252437   c          0.0000000  N                       Y     + 
 +    52    1587.427893   c          0.0000000  N                       Y     + 
 +    53    1596.432276   a         26.9065690  Y                       N     + 
 +    54    1664.677603   a        106.9815070  Y                       N     + 
 +    55    1797.455407   c          0.0000000  N                       Y     + 
 +    56    1804.280381   a         11.0164377  Y                       N     + 
 +    57    2054.424798   a        207.7574060  Y                       N     + 
 +    58    2077.104068   c          0.0000000  N                       Y     + 
 +    59    2121.406092   c          0.0000000  N                       Y     + 
 +    60    2308.305845   a        423.5226454  Y                       N     + 
 + .......................................................................... +
 +        Character table from group theory analysis of eigenvectors          +
 +                           Point Group =   5, C2h                           +
 + (Due to LO/TO splitting this character table may not contain some symmetry +
 +  operations of the full crystallographic point group.  Additional          +
 +  representations may be also be present corresponding to split LO modes.   +
 +  A conventional analysis can be generated by specifying an additional null +
 +  (all zero) field direction or one along any unique crystallographic axis  +
 +  in %BLOCK PHONON_GAMMA_DIRECTIONS in <seedname>.cell.)                    +
 + .......................................................................... +
 +  Rep  Mul |    E   2   I   m                                               +
 +           | ----------------                                               +
 + a Bu   20 |    1  -1  -1   1                                               +
 + b Au   10 |    1   1  -1  -1                                               +
 + c Ag   20 |    1   1   1   1                                               +
 + d Bg   10 |    1  -1   1  -1                                               +
 ==============================================================================
  
 ==============================================================================
 +                           Raman Intensity Tensors                          +
 +----------------------------------------------------------------------------+
 + Mode number:   1 Raman tensor       Depolarisation Ratio                   +
 +     0.0000    0.0000    0.0000      0.000000                               +
 +     0.0000    0.0000    0.0000                                             +
 +     0.0000    0.0000    0.0000                                             +
 +                                                                            +
 + Mode number:   2 Raman tensor       Depolarisation Ratio                   +
 +     0.0000    0.0000    0.0000      0.000000                               +
 +     0.0000    0.0000    0.0000                                             +
 +     0.0000    0.0000    0.0000                                             +
 +                                                                            +
 + Mode number:   3 Raman tensor       Depolarisation Ratio                   +
 +     0.0000    0.0000    0.0000      0.000000                               +
 +     0.0000    0.0000    0.0000                                             +
 +     0.0000    0.0000    0.0000                                             +
 +                                                                            +
 + Mode number:   4 Raman tensor       Depolarisation Ratio                   +
 +    -0.0647    0.0000   -0.0419      0.710447                               +
 +     0.0000    0.0213    0.0000                                             +
 +    -0.0419    0.0000    0.0198                                             +
 +                                                                            +
 + Mode number:   5 Raman tensor       Depolarisation Ratio                   +
 +    -0.0532    0.0000   -0.0265      0.748107                               +
 +     0.0000   -0.0391    0.0000                                             +
 +    -0.0265    0.0000    0.0992                                             +
 +                                                                            +
 + Mode number:   6 Raman tensor       Depolarisation Ratio                   +
 +     0.0000    0.0000    0.0000      0.000000                               +
 +     0.0000    0.0000    0.0000                                             +
 +     0.0000    0.0000    0.0000                                             +
 +                                                                            +
 + Mode number:   7 Raman tensor       Depolarisation Ratio                   +
 +     0.0000    0.0000    0.0000      0.000000                               +
 +     0.0000    0.0000    0.0000                                             +
 +     0.0000    0.0000    0.0000                                             +
 +                                                                            +
 + Mode number:   8 Raman tensor       Depolarisation Ratio                   +
 +    -0.0029   -0.0611    0.0013      0.748218                               +
 +    -0.0611    0.0001   -0.0895                                             +
 +     0.0013   -0.0895   -0.0055                                             +
 +                                                                            +
 + Mode number:   9 Raman tensor       Depolarisation Ratio                   +
 +    -0.0028    0.0186    0.0016      0.749805                               +
 +     0.0186    0.0001   -0.2722                                             +
 +     0.0016   -0.2722   -0.0041                                             +
 +                                                                            +
 + Mode number:  10 Raman tensor       Depolarisation Ratio                   +
 +    -0.0021    0.6459    0.0003      0.749983                               +
 +     0.6459   -0.0002    0.3337                                             +
 +     0.0003    0.3337   -0.0032                                             +
 +                                                                            +
 + Mode number:  11 Raman tensor       Depolarisation Ratio                   +
 +    -0.0015   -0.3495    0.0011      0.749981                               +
 +    -0.3495    0.0002    0.5814                                             +
 +     0.0011    0.5814   -0.0040                                             +
 +                                                                            +
 + Mode number:  12 Raman tensor       Depolarisation Ratio                   +
 +     0.0000    0.0000    0.0000      0.000000                               +
 +     0.0000    0.0000    0.0000                                             +
 +     0.0000    0.0000    0.0000                                             +
 +                                                                            +
 + Mode number:  13 Raman tensor       Depolarisation Ratio                   +
 +     0.0000    0.0000    0.0000      0.000000                               +
 +     0.0000    0.0000    0.0000                                             +
 +     0.0000    0.0000    0.0000                                             +
 +                                                                            +
 + Mode number:  14 Raman tensor       Depolarisation Ratio                   +
 +    -0.0039   -0.0393    0.0010      0.741445                               +
 +    -0.0393   -0.0003    0.0076                                             +
 +     0.0010    0.0076   -0.0024                                             +
 +                                                                            +
 + Mode number:  15 Raman tensor       Depolarisation Ratio                   +
 +     0.0000    0.0000    0.0000      0.000000                               +
 +     0.0000    0.0000    0.0000                                             +
 +     0.0000    0.0000    0.0000                                             +
 +                                                                            +
 + Mode number:  16 Raman tensor       Depolarisation Ratio                   +
 +    -0.3030    0.0000    0.0970      0.343457                               +
 +     0.0000    0.1946    0.0000                                             +
 +     0.0970    0.0000   -0.5549                                             +
 +                                                                            +
 + Mode number:  17 Raman tensor       Depolarisation Ratio                   +
 +     0.3941    0.0000    0.0261      0.746920                               +
 +     0.0000   -0.0006    0.0000                                             +
 +     0.0261    0.0000   -0.4347                                             +
 +                                                                            +
 + Mode number:  18 Raman tensor       Depolarisation Ratio                   +
 +     0.0000    0.0000    0.0000      0.000000                               +
 +     0.0000    0.0000    0.0000                                             +
 +     0.0000    0.0000    0.0000                                             +
 +                                                                            +
 + Mode number:  19 Raman tensor       Depolarisation Ratio                   +
 +     0.0000    0.0000    0.0000      0.000000                               +
 +     0.0000    0.0000    0.0000                                             +
 +     0.0000    0.0000    0.0000                                             +
 +                                                                            +
 + Mode number:  20 Raman tensor       Depolarisation Ratio                   +
 +    -0.0025    0.0000    0.0703      0.716226                               +
 +     0.0000    0.0938    0.0000                                             +
 +     0.0703    0.0000   -0.0565                                             +
 +                                                                            +
 + Mode number:  21 Raman tensor       Depolarisation Ratio                   +
 +     0.0000    0.0000    0.0000      0.000000                               +
 +     0.0000    0.0000    0.0000                                             +
 +     0.0000    0.0000    0.0000                                             +
 +                                                                            +
 + Mode number:  22 Raman tensor       Depolarisation Ratio                   +
 +    -1.3327    0.0000   -0.6216      0.749993                               +
 +     0.0000    0.0138    0.0000                                             +
 +    -0.6216    0.0000    1.3260                                             +
 +                                                                            +
 + Mode number:  23 Raman tensor       Depolarisation Ratio                   +
 +     0.0000    0.0000    0.0000      0.000000                               +
 +     0.0000    0.0000    0.0000                                             +
 +     0.0000    0.0000    0.0000                                             +
 +                                                                            +
 + Mode number:  24 Raman tensor       Depolarisation Ratio                   +
 +     0.0000    0.0000    0.0000      0.000000                               +
 +     0.0000    0.0000    0.0000                                             +
 +     0.0000    0.0000    0.0000                                             +
 +                                                                            +
 + Mode number:  25 Raman tensor       Depolarisation Ratio                   +
 +    -0.0026    0.4019    0.0016      0.749974                               +
 +     0.4019    0.0000    0.5027                                             +
 +     0.0016    0.5027   -0.0033                                             +
 +                                                                            +
 + Mode number:  26 Raman tensor       Depolarisation Ratio                   +
 +    -0.0040   -0.4983    0.0014      0.749884                               +
 +    -0.4983    0.0000    0.3411                                             +
 +     0.0014    0.3411   -0.0076                                             +
 +                                                                            +
 + Mode number:  27 Raman tensor       Depolarisation Ratio                   +
 +     0.0000    0.0000    0.0000      0.000000                               +
 +     0.0000    0.0000    0.0000                                             +
 +     0.0000    0.0000    0.0000                                             +
 +                                                                            +
 + Mode number:  28 Raman tensor       Depolarisation Ratio                   +
 +     1.3742    0.0000   -0.7751      0.749993                               +
 +     0.0000   -0.0002    0.0000                                             +
 +    -0.7751    0.0000   -1.3667                                             +
 +                                                                            +
 + Mode number:  29 Raman tensor       Depolarisation Ratio                   +
 +     0.0000    0.0000    0.0000      0.000000                               +
 +     0.0000    0.0000    0.0000                                             +
 +     0.0000    0.0000    0.0000                                             +
 +                                                                            +
 + Mode number:  30 Raman tensor       Depolarisation Ratio                   +
 +     2.6004    0.0000   -0.0081      0.063851                               +
 +     0.0000    0.6101    0.0000                                             +
 +    -0.0081    0.0000    2.5432                                             +
 +                                                                            +
 + Mode number:  31 Raman tensor       Depolarisation Ratio                   +
 +     0.0000    0.0000    0.0000      0.000000                               +
 +     0.0000    0.0000    0.0000                                             +
 +     0.0000    0.0000    0.0000                                             +
 +                                                                            +
 + Mode number:  32 Raman tensor       Depolarisation Ratio                   +
 +    -0.0032   -0.0812    0.0020      0.748903                               +
 +    -0.0812    0.0001   -0.1011                                             +
 +     0.0020   -0.1011   -0.0046                                             +
 +                                                                            +
 + Mode number:  33 Raman tensor       Depolarisation Ratio                   +
 +     0.0000    0.0000    0.0000      0.000000                               +
 +     0.0000    0.0000    0.0000                                             +
 +     0.0000    0.0000    0.0000                                             +
 +                                                                            +
 + Mode number:  34 Raman tensor       Depolarisation Ratio                   +
 +     0.2298    0.0000    0.0268      0.239561                               +
 +     0.0000   -0.0670    0.0000                                             +
 +     0.0268    0.0000    0.2286                                             +
 +                                                                            +
 + Mode number:  35 Raman tensor       Depolarisation Ratio                   +
 +     0.2868    0.0000    1.0766      0.716133                               +
 +     0.0000    0.0125    0.0000                                             +
 +     1.0766    0.0000   -0.7005                                             +
 +                                                                            +
 + Mode number:  36 Raman tensor       Depolarisation Ratio                   +
 +     0.0000    0.0000    0.0000      0.000000                               +
 +     0.0000    0.0000    0.0000                                             +
 +     0.0000    0.0000    0.0000                                             +
 +                                                                            +
 + Mode number:  37 Raman tensor       Depolarisation Ratio                   +
 +     0.2855    0.0000    0.1012      0.596828                               +
 +     0.0000   -0.0375    0.0000                                             +
 +     0.1012    0.0000   -0.6146                                             +
 +                                                                            +
 + Mode number:  38 Raman tensor       Depolarisation Ratio                   +
 +     0.0000    0.0000    0.0000      0.000000                               +
 +     0.0000    0.0000    0.0000                                             +
 +     0.0000    0.0000    0.0000                                             +
 +                                                                            +
 + Mode number:  39 Raman tensor       Depolarisation Ratio                   +
 +     0.0000    0.0000    0.0000      0.000000                               +
 +     0.0000    0.0000    0.0000                                             +
 +     0.0000    0.0000    0.0000                                             +
 +                                                                            +
 + Mode number:  40 Raman tensor       Depolarisation Ratio                   +
 +    -0.0036   -0.0574   -0.0013      0.745946                               +
 +    -0.0574   -0.0006   -0.0373                                             +
 +    -0.0013   -0.0373   -0.0036                                             +
 +                                                                            +
 + Mode number:  41 Raman tensor       Depolarisation Ratio                   +
 +     1.8224    0.0000    2.4954      0.734487                               +
 +     0.0000    0.0264    0.0000                                             +
 +     2.4954    0.0000   -1.1913                                             +
 +                                                                            +
 + Mode number:  42 Raman tensor       Depolarisation Ratio                   +
 +     0.0000    0.0000    0.0000      0.000000                               +
 +     0.0000    0.0000    0.0000                                             +
 +     0.0000    0.0000    0.0000                                             +
 +                                                                            +
 + Mode number:  43 Raman tensor       Depolarisation Ratio                   +
 +    -0.0025   -0.0480   -0.0027      0.748112                               +
 +    -0.0480   -0.0007    0.0306                                             +
 +    -0.0027    0.0306   -0.0013                                             +
 +                                                                            +
 + Mode number:  44 Raman tensor       Depolarisation Ratio                   +
 +     0.0000    0.0000    0.0000      0.000000                               +
 +     0.0000    0.0000    0.0000                                             +
 +     0.0000    0.0000    0.0000                                             +
 +                                                                            +
 + Mode number:  45 Raman tensor       Depolarisation Ratio                   +
 +     0.0000    0.0000    0.0000      0.000000                               +
 +     0.0000    0.0000    0.0000                                             +
 +     0.0000    0.0000    0.0000                                             +
 +                                                                            +
 + Mode number:  46 Raman tensor       Depolarisation Ratio                   +
 +    -3.4377    0.0000    0.3487      0.339981                               +
 +     0.0000   -0.0681    0.0000                                             +
 +     0.3487    0.0000    0.0730                                             +
 +                                                                            +
 + Mode number:  47 Raman tensor       Depolarisation Ratio                   +
 +     0.0000    0.0000    0.0000      0.000000                               +
 +     0.0000    0.0000    0.0000                                             +
 +     0.0000    0.0000    0.0000                                             +
 +                                                                            +
 + Mode number:  48 Raman tensor       Depolarisation Ratio                   +
 +     1.8695    0.0000   -0.2058      0.156985                               +
 +     0.0000    0.1351    0.0000                                             +
 +    -0.2058    0.0000    4.2563                                             +
 +                                                                            +
 + Mode number:  49 Raman tensor       Depolarisation Ratio                   +
 +     0.0000    0.0000    0.0000      0.000000                               +
 +     0.0000    0.0000    0.0000                                             +
 +     0.0000    0.0000    0.0000                                             +
 +                                                                            +
 + Mode number:  50 Raman tensor       Depolarisation Ratio                   +
 +     0.2522    0.0000   -0.3649      0.464393                               +
 +     0.0000    0.0487    0.0000                                             +
 +    -0.3649    0.0000    0.1595                                             +
 +                                                                            +
 + Mode number:  51 Raman tensor       Depolarisation Ratio                   +
 +     0.0000    0.0000    0.0000      0.000000                               +
 +     0.0000    0.0000    0.0000                                             +
 +     0.0000    0.0000    0.0000                                             +
 +                                                                            +
 + Mode number:  52 Raman tensor       Depolarisation Ratio                   +
 +    -1.1332    0.0000   -0.2195      0.101429                               +
 +     0.0000   -0.1854    0.0000                                             +
 +    -0.2195    0.0000   -1.5454                                             +
 +                                                                            +
 + Mode number:  53 Raman tensor       Depolarisation Ratio                   +
 +    -2.5775    0.0000    1.0925      0.747953                               +
 +     0.0000    0.0000    0.0000                                             +
 +     1.0925    0.0000    2.3587                                             +
 +                                                                            +
 + Mode number:  54 Raman tensor       Depolarisation Ratio                   +
 +     0.0000    0.0000    0.0000      0.000000                               +
 +     0.0000    0.0000    0.0000                                             +
 +     0.0000    0.0000    0.0000                                             +
 +                                                                            +
 + Mode number:  55 Raman tensor       Depolarisation Ratio                   +
 +    -0.9951    0.0000    0.1123      0.069915                               +
 +     0.0000   -0.2307    0.0000                                             +
 +     0.1123    0.0000   -1.0441                                             +
 +                                                                            +
 + Mode number:  56 Raman tensor       Depolarisation Ratio                   +
 +     0.0000    0.0000    0.0000      0.000000                               +
 +     0.0000    0.0000    0.0000                                             +
 +     0.0000    0.0000    0.0000                                             +
 +                                                                            +
 + Mode number:  57 Raman tensor       Depolarisation Ratio                   +
 +     0.0000    0.0000    0.0000      0.000000                               +
 +     0.0000    0.0000    0.0000                                             +
 +     0.0000    0.0000    0.0000                                             +
 +                                                                            +
 + Mode number:  58 Raman tensor       Depolarisation Ratio                   +
 +    -4.6601    0.0000   -0.8700      0.334082                               +
 +     0.0000    0.1097    0.0000                                             +
 +    -0.8700    0.0000   -0.2718                                             +
 +                                                                            +
 + Mode number:  59 Raman tensor       Depolarisation Ratio                   +
 +     0.0000    0.0000    0.0000      0.000000                               +
 +     0.0000    0.0000    0.0000                                             +
 +     0.0000    0.0000    0.0000                                             +
 +                                                                            +
 + Mode number:  60 Raman tensor       Depolarisation Ratio                   +
 +    -0.7668    0.0000    1.1239      0.297773                               +
 +     0.0000    0.1164    0.0000                                             +
 +     1.1239    0.0000   -5.4149                                             +
 +                                                                            +
 +----------------------------------------------------------------------------+
  

 ===============================================================================
        Optical Permittivity (f->infinity)             DC Permittivity (f=0)
        ----------------------------------             ---------------------
         3.80423     0.00000     0.00849        10.46362     0.00000    -0.84692
         0.00000     2.01009     0.00000         0.00000     2.52738     0.00000
         0.00849     0.00000     3.78642        -0.84692     0.00000     9.73498
 ===============================================================================

 ===============================================================================
                                    Polarisabilities (A**3)
                Optical (f->infinity)                       Static  (f=0)
                ---------------------                       -------------
        43.07788     0.00000     0.13040       145.37761     0.00000   -13.01019
         0.00000    15.51671     0.00000         0.00000    23.46315     0.00000
         0.13040     0.00000    42.80427       -13.01019     0.00000   134.18450
 ===============================================================================
 ===================================================
                   Born Effective Charges
                   ----------------------
   H       1         0.49545     0.00000    -1.70212
                     0.00000     0.39909     0.00000
                    -0.29198     0.00000     2.46178
   H       2         2.50442     0.00000     0.30851
                     0.00000     0.39565     0.00000
                     1.73769     0.00000     0.50933
   H       3         0.49545     0.00000    -1.70212
                     0.00000     0.39909     0.00000
                    -0.29198     0.00000     2.46178
   H       4         2.50442     0.00000     0.30851
                     0.00000     0.39565     0.00000
                     1.73769     0.00000     0.50933
   C       1        -0.11894     0.00000     1.35063
                     0.00000     0.30289     0.00000
                     1.13469     0.00000     3.21573
   C       2         3.01573     0.00000    -1.22634
                     0.00000     0.26330     0.00000
                    -1.40475     0.00000    -0.59154
   C       3        -0.46202     0.00000     1.69649
                     0.00000     0.24197     0.00000
                     1.33291     0.00000     2.88967
   C       4         3.11399     0.00000    -1.20512
                     0.00000     0.28707     0.00000
                    -1.66714     0.00000    -0.00411
   C       5        -0.11894     0.00000     1.35063
                     0.00000     0.30289     0.00000
                     1.13469     0.00000     3.21573
   C       6         3.01573     0.00000    -1.22634
                     0.00000     0.26330     0.00000
                    -1.40475     0.00000    -0.59154
   C       7        -0.46202     0.00000     1.69649
                     0.00000     0.24197     0.00000
                     1.33291     0.00000     2.88967
   C       8         3.11399     0.00000    -1.20512
                     0.00000     0.28707     0.00000
                    -1.66714     0.00000    -0.00411
   O       1        -0.80046     0.00000    -0.18037
                     0.00000    -0.51884     0.00000
                    -0.47813     0.00000    -3.41197
   O       2        -3.61559     0.00000     0.43406
                     0.00000    -0.42803     0.00000
                    -0.02992     0.00000    -0.69177
   O       3        -0.66366     0.00000     0.06452
                     0.00000    -0.42860     0.00000
                    -0.47231     0.00000    -3.61066
   O       4        -3.46893     0.00000     0.45974
                     0.00000    -0.51450     0.00000
                     0.13895     0.00000    -0.76647
   O       5        -0.80046     0.00000    -0.18037
                     0.00000    -0.51884     0.00000
                    -0.47813     0.00000    -3.41197
   O       6        -3.61559     0.00000     0.43406
                     0.00000    -0.42803     0.00000
                    -0.02992     0.00000    -0.69177
   O       7        -0.66366     0.00000     0.06452
                     0.00000    -0.42860     0.00000
                    -0.47231     0.00000    -3.61066
   O       8        -3.46893     0.00000     0.45974
                     0.00000    -0.51450     0.00000
                     0.13895     0.00000    -0.76647
 ===================================================
 
 ***************** Symmetrised Forces *****************
 *                                                    *
 *            Cartesian components (eV/A)             *
 * -------------------------------------------------- *
 *                   x            y            z      *
 *                                                    *
 * H         1      0.00401      0.00000     -0.00036 *
 * H         2     -0.00069      0.00000     -0.00143 *
 * H         3     -0.00401      0.00000      0.00036 *
 * H         4      0.00069      0.00000      0.00143 *
 * C         1     -0.00128      0.00000     -0.00007 *
 * C         2     -0.00086      0.00000      0.00007 *
 * C         3     -0.00111      0.00000     -0.00024 *
 * C         4     -0.00099      0.00000      0.00097 *
 * C         5      0.00128      0.00000      0.00007 *
 * C         6      0.00086      0.00000     -0.00007 *
 * C         7      0.00111      0.00000      0.00024 *
 * C         8      0.00099      0.00000     -0.00097 *
 * O         1     -0.00113      0.00000      0.00007 *
 * O         2     -0.00120      0.00000     -0.00002 *
 * O         3      0.00207      0.00000     -0.00059 *
 * O         4     -0.00080      0.00000      0.00205 *
 * O         5      0.00113      0.00000     -0.00007 *
 * O         6      0.00120      0.00000      0.00002 *
 * O         7     -0.00207      0.00000      0.00059 *
 * O         8      0.00080      0.00000     -0.00205 *
 *                                                    *
 ******************************************************
 
 *********** Symmetrised Stress Tensor ***********
 *                                               *
 *          Cartesian components (GPa)           *
 * --------------------------------------------- *
 *             x             y             z     *
 *                                               *
 *  x     -0.806819      0.000000     -0.083755  *
 *  y      0.000000     -2.153211      0.000000  *
 *  z     -0.083755      0.000000     -0.348423  *
 *                                               *
 *  Pressure:    1.1028                          *
 *                                               *
 *************************************************
 
 Pseudo atomic calculation performed for H 1s1
 
 Converged in 19 iterations to a total energy of -12.4757 eV
 
 
 Pseudo atomic calculation performed for C 2s2 2p2
 
 Converged in 26 iterations to a total energy of -145.6078 eV
 
 
 Pseudo atomic calculation performed for O 2s2 2p4
 
 Converged in 33 iterations to a total energy of -423.8770 eV
 
Charge spilling parameter for spin component 1 = 1.16%
 
     Atomic Populations (Mulliken)
     -----------------------------
Species   Ion     s      p      d      f     Total  Charge (e)
==============================================================
  H        1     0.53   0.00   0.00   0.00   0.53     0.47
  H        2     0.53   0.00   0.00   0.00   0.53     0.47
  H        3     0.53   0.00   0.00   0.00   0.53     0.47
  H        4     0.53   0.00   0.00   0.00   0.53     0.47
  C        1     0.96   2.66   0.00   0.00   3.62     0.38
  C        2     0.97   2.72   0.00   0.00   3.69     0.31
  C        3     0.97   2.72   0.00   0.00   3.69     0.31
  C        4     0.96   2.66   0.00   0.00   3.62     0.38
  C        5     0.96   2.66   0.00   0.00   3.62     0.38
  C        6     0.97   2.72   0.00   0.00   3.69     0.31
  C        7     0.97   2.72   0.00   0.00   3.69     0.31
  C        8     0.96   2.66   0.00   0.00   3.62     0.38
  O        1     1.79   4.77   0.00   0.00   6.57    -0.57
  O        2     1.77   4.82   0.00   0.00   6.59    -0.59
  O        3     1.77   4.82   0.00   0.00   6.59    -0.59
  O        4     1.79   4.77   0.00   0.00   6.57    -0.57
  O        5     1.79   4.77   0.00   0.00   6.57    -0.57
  O        6     1.77   4.82   0.00   0.00   6.59    -0.59
  O        7     1.77   4.82   0.00   0.00   6.59    -0.59
  O        8     1.79   4.77   0.00   0.00   6.57    -0.57
==============================================================
 
            Bond              Population      Length (A)
============================================================
          H 3 -- O 7               0.45        1.06237
          H 1 -- O 3               0.45        1.06237
          H 2 -- O 2               0.44        1.06642
          H 4 -- O 6               0.44        1.06642
          C 5 -- O 5               0.93        1.23868
          C 1 -- O 1               0.93        1.23868
          C 8 -- O 8               0.93        1.23962
          C 4 -- O 4               0.93        1.23962
          C 6 -- O 6               0.76        1.28243
          C 2 -- O 2               0.76        1.28243
          C 3 -- O 3               0.76        1.28390
          C 7 -- O 7               0.76        1.28390
          H 4 -- O 8               0.23        1.42011
          H 2 -- O 4               0.23        1.42011
          C 2 -- C 3               1.00        1.43101
          C 6 -- C 7               1.00        1.43101
          H 3 -- O 5               0.22        1.43612
          H 1 -- O 1               0.22        1.43612
          C 3 -- C 4               0.89        1.46387
          C 7 -- C 8               0.89        1.46387
          C 5 -- C 6               0.89        1.46922
          C 1 -- C 2               0.89        1.46922
          C 5 -- C 8               0.81        1.49654
          C 1 -- C 4               0.81        1.49654
          H 4 -- C 6              -0.18        1.96367
          H 2 -- C 2              -0.18        1.96367
          H 3 -- C 7              -0.17        1.97264
          H 1 -- C 3              -0.17        1.97264
          C 6 -- C 8              -0.57        2.07128
          C 2 -- C 4              -0.57        2.07128
          C 5 -- C 7              -0.57        2.07231
          C 1 -- C 3              -0.57        2.07231
          H 4 -- C 8              -0.10        2.27942
          H 2 -- C 4              -0.10        2.27942
          H 3 -- C 5              -0.10        2.28197
          H 1 -- C 1              -0.10        2.28197
          C 7 -- O 6              -0.14        2.47976
          C 3 -- O 2              -0.14        2.47976
          O 6 -- O 8              -0.16        2.48616
          O 2 -- O 4              -0.16        2.48616
          O 5 -- O 7              -0.16        2.49806
          O 1 -- O 3              -0.16        2.49806
          C 6 -- O 5              -0.14        2.50249
          C 2 -- O 1              -0.14        2.50249
          C 8 -- O 7              -0.12        2.50834
          C 4 -- O 3              -0.12        2.50834
          C 7 -- O 8              -0.15        2.51381
          C 3 -- O 4              -0.15        2.51381
          C 5 -- O 8              -0.13        2.52515
          C 1 -- O 4              -0.13        2.52515
          C 6 -- O 7              -0.13        2.52608
          C 2 -- O 3              -0.13        2.52608
          C 8 -- O 5              -0.13        2.54232
          C 4 -- O 1              -0.13        2.54232
          C 5 -- O 6              -0.12        2.55920
          C 1 -- O 2              -0.12        2.55920
          H 2 -- H 3              -0.02        2.59127
          H 1 -- H 4              -0.02        2.59127
          H 3 -- C 6              -0.03        2.76345
          H 1 -- C 2              -0.03        2.76345
          H 4 -- C 5              -0.03        2.77205
          H 2 -- C 1              -0.03        2.77205
          H 4 -- O 1              -0.01        2.83095
          H 2 -- O 5              -0.01        2.83095
          H 1 -- O 6              -0.01        2.84629
          H 3 -- O 2              -0.01        2.84629
          H 3 -- O 4              -0.01        2.89355
          H 1 -- O 8              -0.01        2.89355
          H 4 -- O 3              -0.01        2.90126
          H 2 -- O 7              -0.01        2.90126
          H 4 -- C 7               0.00        2.97743
          H 2 -- C 3               0.00        2.97743
          H 3 -- C 8               0.00        2.98493
          H 1 -- C 4               0.00        2.98493
============================================================
 
 
Writing model to squaricn.check
 
Writing analysis data to squaricn.castep_bin
 
 A BibTeX formatted list of references used in this run has been written to 
 squaricn.bib
 
Initialisation time =      4.07 s
Calculation time    =  12017.62 s
Finalisation time   =      2.61 s
Total time          =  12024.30 s
Peak Memory Use     = 2540172 kB
  
Overall parallel efficiency rating: Terrible (16%)                              
  
Data was distributed by:-
G-vector (33-way); efficiency rating: Terrible (17%)                            
k-point (4-way); efficiency rating: Very good (80%)                             
